Title Card Required                                                     
Freq      RB3LYP                                                      STO-3G              
Number of atoms                            I               11
Charge                                     I                0
Multiplicity                               I                1
Number of electrons                        I               26
Number of alpha electrons                  I               13
Number of beta electrons                   I               13
Number of basis functions                  I               23
Number of independant functions            I               23
Number of point charges in /Mol/           I                0
Number of translation vectors              I                0
Number of symbols in /Mol/                 I                0
Info1-9                                    I   N=           9
          29          29           0           0           0         101
           6          18        -502
Num ILSW                                   I              100
ILSW                                       I   N=         100
           0           0           0           0           2           0
           0           0           3           0         402      200000
           0           0           0           0           0           0
           0      800000           0           0           1           0
           1           1           0           0     1000000           0
           0           0      100000           0          -1           0
           0           0           0           0           0           0
           0           0           0           1           0           0
           0           0           1      720000      810000           0
           0           0           0           0           0           0
           0           0           0           0           0           0
           0           0           0           0           0           0
           0           0           0           0           0           0
           0           0           0           0           0           0
           0           0           0           0           0           0
           0           0           0           0           0           0
           0           0           0           0
Number of contracted shells                I               14
Highest angular momentum                   I                1
Largest degree of contraction              I                3
Number of primitive shells                 I               42
Pure/Cartesian d shells                    I                0
Pure/Cartesian f shells                    I                0
Virial Ratio                               R      2.015765618211289E+00
SCF Energy                                 R     -1.177266855885583E+02
Total Energy                               R     -1.177266855885583E+02
RMS Force                                  R      1.467747252739295E-02
RMS Density                                R      2.677148427267991E-09
Atomic numbers                             I   N=          11
           6           1           1           1           6           1
           1           6           1           1           1
Nuclear charges                            R   N=          11
  6.00000000E+00  1.00000000E+00  1.00000000E+00  1.00000000E+00  6.00000000E+00
  1.00000000E+00  1.00000000E+00  6.00000000E+00  1.00000000E+00  1.00000000E+00
  1.00000000E+00
Current cartesian coordinates              R   N=          33
 -6.57759708E+00  3.18941117E-01  8.61053146E-02 -5.90361788E+00 -1.58743350E+00
  8.61053146E-02 -5.90358309E+00  1.27211556E+00 -1.56485678E+00 -8.59960404E+00
  3.18966024E-01  8.61053146E-02 -5.60752087E+00  1.69079965E+00  2.46225635E+00
 -6.28455137E+00  7.39760148E-01  4.11321538E+00 -3.58551733E+00  1.68757449E+00
  2.46410592E+00 -6.57320056E+00  4.43608527E+00  2.45959769E+00 -8.59520332E+00
  4.43930947E+00  2.45703723E+00 -5.89976736E+00  5.38905576E+00  4.11091448E+00
 -5.89558993E+00  5.38732851E+00  8.08994082E-01
Atom Types                                 C   N=          11
                                                            
                                                            
            
Int Atom Types                             I   N=          11
           0           0           0           0           0           0
           0           0           0           0           0
Force Field                                I                0
MM charges                                 R   N=          11
  0.00000000E+00  0.00000000E+00  0.00000000E+00  0.00000000E+00  0.00000000E+00
  0.00000000E+00  0.00000000E+00  0.00000000E+00  0.00000000E+00  0.00000000E+00
  0.00000000E+00
Integer atomic weights                     I   N=          11
          12           1           1           1          12           1
           1          12           1           1           1
Real atomic weights                        R   N=          11
  1.20000000E+01  1.00782504E+00  1.00782504E+00  1.00782504E+00  1.20000000E+01
  1.00782504E+00  1.00782504E+00  1.20000000E+01  1.00782504E+00  1.00782504E+00
  1.00782504E+00
Atom residue info                          I   N=          11
           0           0           0           0           0           0
           0           0           0           0           0
Atom fragment info                         I   N=          11
           0           0           0           0           0           0
           0           0           0           0           0
Atom residue num                           I   N=          11
           0           0           0           0           0           0
           0           0           0           0           0
Nuclear spins                              I   N=          11
           0           1           1           1           0           1
           1           0           1           1           1
Nuclear ZEff                               R   N=          11
 -3.60000000E+00 -1.00000000E+00 -1.00000000E+00 -1.00000000E+00 -3.60000000E+00
 -1.00000000E+00 -1.00000000E+00 -3.60000000E+00 -1.00000000E+00 -1.00000000E+00
 -1.00000000E+00
Nuclear QMom                               R   N=          11
  0.00000000E+00  0.00000000E+00  0.00000000E+00  0.00000000E+00  0.00000000E+00
  0.00000000E+00  0.00000000E+00  0.00000000E+00  0.00000000E+00  0.00000000E+00
  0.00000000E+00
Nuclear GFac                               R   N=          11
  0.00000000E+00  2.79284600E+00  2.79284600E+00  2.79284600E+00  0.00000000E+00
  2.79284600E+00  2.79284600E+00  0.00000000E+00  2.79284600E+00  2.79284600E+00
  2.79284600E+00
MicOpt                                     I   N=          11
          -1          -1          -1          -1          -1          -1
          -1          -1          -1          -1          -1
Constraint Structure                       R   N=          33
 -6.57759708E+00  3.18941117E-01  8.61053146E-02 -5.90361788E+00 -1.58743350E+00
  8.61053146E-02 -5.90358309E+00  1.27211556E+00 -1.56485678E+00 -8.59960404E+00
  3.18966024E-01  8.61053146E-02 -5.60752087E+00  1.69079965E+00  2.46225635E+00
 -6.28455137E+00  7.39760148E-01  4.11321538E+00 -3.58551733E+00  1.68757449E+00
  2.46410592E+00 -6.57320056E+00  4.43608527E+00  2.45959769E+00 -8.59520332E+00
  4.43930947E+00  2.45703723E+00 -5.89976736E+00  5.38905576E+00  4.11091448E+00
 -5.89558993E+00  5.38732851E+00  8.08994082E-01
ONIOM Charges                              I   N=          16
           0           0           0           0           0           0
           0           0           0           0           0           0
           0           0           0           0
ONIOM Multiplicities                       I   N=          16
           1           0           0           0           0           0
           0           0           0           0           0           0
           0           0           0           0
Atom Layers                                I   N=          11
           3           3           3           3           1           1
           1           1           1           1           1
Atom Modifiers                             I   N=          11
           1           0           0           0           0           0
           0           0           0           0           0
Atom Modified Types                        C   N=          11
                                                            
                                                            
            
Int Atom Modified Types                    I   N=          11
           0           0           0           0           0           0
           0           0           0           0           0
Link Atoms                                 I   N=          11
           5           0           0           0           0           0
           0           0           0           0           0
Atom Modified MM Charges                   R   N=          11
  0.00000000E+00  0.00000000E+00  0.00000000E+00  0.00000000E+00  0.00000000E+00
  0.00000000E+00  0.00000000E+00  0.00000000E+00  0.00000000E+00  0.00000000E+00
  0.00000000E+00
Link Distances                             R   N=          44
  0.00000000E+00  0.00000000E+00  0.00000000E+00  0.00000000E+00  0.00000000E+00
  0.00000000E+00  0.00000000E+00  0.00000000E+00  0.00000000E+00  0.00000000E+00
  0.00000000E+00  0.00000000E+00  0.00000000E+00  0.00000000E+00  0.00000000E+00
  0.00000000E+00  0.00000000E+00  0.00000000E+00  0.00000000E+00  0.00000000E+00
  0.00000000E+00  0.00000000E+00  0.00000000E+00  0.00000000E+00  0.00000000E+00
  0.00000000E+00  0.00000000E+00  0.00000000E+00  0.00000000E+00  0.00000000E+00
  0.00000000E+00  0.00000000E+00  0.00000000E+00  0.00000000E+00  0.00000000E+00
  0.00000000E+00  0.00000000E+00  0.00000000E+00  0.00000000E+00  0.00000000E+00
  0.00000000E+00  0.00000000E+00  0.00000000E+00  0.00000000E+00
MxBond                                     I                4
NBond                                      I   N=          11
           4           1           1           1           4           1
           1           4           1           1           1
IBond                                      I   N=          44
           2           3           4           5           1           0
           0           0           1           0           0           0
           1           0           0           0           6           7
           8           1           5           0           0           0
           5           0           0           0           9          10
          11           5           8           0           0           0
           8           0           0           0           8           0
           0           0
RBond                                      R   N=          44
  1.00000000E+00  1.00000000E+00  1.00000000E+00  1.00000000E+00  1.00000000E+00
  0.00000000E+00  0.00000000E+00  0.00000000E+00  1.00000000E+00  0.00000000E+00
  0.00000000E+00  0.00000000E+00  1.00000000E+00  0.00000000E+00  0.00000000E+00
  0.00000000E+00  1.00000000E+00  1.00000000E+00  1.00000000E+00  1.00000000E+00
  1.00000000E+00  0.00000000E+00  0.00000000E+00  0.00000000E+00  1.00000000E+00
  0.00000000E+00  0.00000000E+00  0.00000000E+00  1.00000000E+00  1.00000000E+00
  1.00000000E+00  1.00000000E+00  1.00000000E+00  0.00000000E+00  0.00000000E+00
  0.00000000E+00  1.00000000E+00  0.00000000E+00  0.00000000E+00  0.00000000E+00
  1.00000000E+00  0.00000000E+00  0.00000000E+00  0.00000000E+00
Shell types                                I   N=          14
           0          -1           0           0           0           0
          -1           0           0           0          -1           0
           0           0
Number of primitives per shell             I   N=          14
           3           3           3           3           3           3
           3           3           3           3           3           3
           3           3
Shell to atom map                          I   N=          14
           1           1           2           3           4           5
           5           6           7           8           8           9
          10          11
Primitive exponents                        R   N=          42
  7.16168373E+01  1.30450963E+01  3.53051216E+00  2.94124936E+00  6.83483096E-01
  2.22289916E-01  3.42525091E+00  6.23913730E-01  1.68855404E-01  3.42525091E+00
  6.23913730E-01  1.68855404E-01  3.42525091E+00  6.23913730E-01  1.68855404E-01
  7.16168373E+01  1.30450963E+01  3.53051216E+00  2.94124936E+00  6.83483096E-01
  2.22289916E-01  3.42525091E+00  6.23913730E-01  1.68855404E-01  3.42525091E+00
  6.23913730E-01  1.68855404E-01  7.16168373E+01  1.30450963E+01  3.53051216E+00
  2.94124936E+00  6.83483096E-01  2.22289916E-01  3.42525091E+00  6.23913730E-01
  1.68855404E-01  3.42525091E+00  6.23913730E-01  1.68855404E-01  3.42525091E+00
  6.23913730E-01  1.68855404E-01
Contraction coefficients                   R   N=          42
  1.54328967E-01  5.35328142E-01  4.44634542E-01 -9.99672292E-02  3.99512826E-01
  7.00115469E-01  1.54328967E-01  5.35328142E-01  4.44634542E-01  1.54328967E-01
  5.35328142E-01  4.44634542E-01  1.54328967E-01  5.35328142E-01  4.44634542E-01
  1.54328967E-01  5.35328142E-01  4.44634542E-01 -9.99672292E-02  3.99512826E-01
  7.00115469E-01  1.54328967E-01  5.35328142E-01  4.44634542E-01  1.54328967E-01
  5.35328142E-01  4.44634542E-01  1.54328967E-01  5.35328142E-01  4.44634542E-01
 -9.99672292E-02  3.99512826E-01  7.00115469E-01  1.54328967E-01  5.35328142E-01
  4.44634542E-01  1.54328967E-01  5.35328142E-01  4.44634542E-01  1.54328967E-01
  5.35328142E-01  4.44634542E-01
P(S=P) Contraction coefficients            R   N=          42
  0.00000000E+00  0.00000000E+00  0.00000000E+00  1.55916275E-01  6.07683719E-01
  3.91957393E-01  0.00000000E+00  0.00000000E+00  0.00000000E+00  0.00000000E+00
  0.00000000E+00  0.00000000E+00  0.00000000E+00  0.00000000E+00  0.00000000E+00
  0.00000000E+00  0.00000000E+00  0.00000000E+00  1.55916275E-01  6.07683719E-01
  3.91957393E-01  0.00000000E+00  0.00000000E+00  0.00000000E+00  0.00000000E+00
  0.00000000E+00  0.00000000E+00  0.00000000E+00  0.00000000E+00  0.00000000E+00
  1.55916275E-01  6.07683719E-01  3.91957393E-01  0.00000000E+00  0.00000000E+00
  0.00000000E+00  0.00000000E+00  0.00000000E+00  0.00000000E+00  0.00000000E+00
  0.00000000E+00  0.00000000E+00
Coordinates of each shell                  R   N=          42
 -6.57759708E+00  3.18941117E-01  8.61053146E-02 -6.57759708E+00  3.18941117E-01
  8.61053146E-02 -5.90361788E+00 -1.58743350E+00  8.61053146E-02 -5.90358309E+00
  1.27211556E+00 -1.56485678E+00 -8.59960404E+00  3.18966024E-01  8.61053146E-02
 -5.60752087E+00  1.69079965E+00  2.46225635E+00 -5.60752087E+00  1.69079965E+00
  2.46225635E+00 -6.28455137E+00  7.39760148E-01  4.11321538E+00 -3.58551733E+00
  1.68757449E+00  2.46410592E+00 -6.57320056E+00  4.43608527E+00  2.45959769E+00
 -6.57320056E+00  4.43608527E+00  2.45959769E+00 -8.59520332E+00  4.43930947E+00
  2.45703723E+00 -5.89976736E+00  5.38905576E+00  4.11091448E+00 -5.89558993E+00
  5.38732851E+00  8.08994082E-01
Alpha Orbital Energies                     R   N=          23
 -1.00076738E+01 -9.99734990E+00 -9.99722180E+00 -7.48726721E-01 -6.51707282E-01
 -5.60667356E-01 -4.35472076E-01 -4.07312097E-01 -3.68848888E-01 -3.56323815E-01
 -3.05304905E-01 -3.03363089E-01 -2.92228997E-01  4.01578418E-01  4.07241147E-01
  4.15216432E-01  4.61769492E-01  4.93072399E-01  5.16678256E-01  5.21763168E-01
  5.38059894E-01  5.46068316E-01  5.65003044E-01
Alpha MO coefficients                      R   N=         529
 -4.70689509E-02 -9.73380468E-03 -1.95953977E-03 -2.67936633E-03 -4.74697647E-03
  6.64856255E-04  5.95321899E-04  5.95367657E-04  9.87837520E-01  4.69144643E-02
  1.31088030E-04 -9.30251537E-05  1.61108326E-04 -9.69948282E-03 -9.69947523E-03
 -4.70680070E-02 -9.73375936E-03 -1.95081049E-03  5.45376400E-03 -5.83470952E-05
  5.95364682E-04  6.64846660E-04  5.95304166E-04  7.00695623E-01  3.32325290E-02
 -1.98298130E-04 -5.29355870E-05 -3.54037716E-04 -6.70112299E-03 -6.87755901E-03
 -6.87845038E-03  5.53483696E-05 -5.77737658E-06  8.39113289E-06  5.83103973E-03
  3.36509847E-03 -3.19245282E-07 -3.46588417E-07 -6.99583619E-01 -3.31802744E-02
  1.97111928E-04 -3.32291594E-04  1.31925495E-04  6.86675514E-03  6.69007413E-03
  6.86769900E-03  6.98055344E-01  3.28062691E-02 -1.68405130E-04 -4.51967537E-04
 -5.36210855E-04 -6.93628289E-03 -6.76536636E-03 -6.76446518E-03  6.87042552E-02
 -7.29734790E-03  2.72701578E-03 -1.93950631E-03  3.34855589E-03 -4.10581378E-04
 -4.10560006E-04  6.99169844E-01  3.28591240E-02 -1.67985041E-04  6.91142832E-04
  1.22662343E-04 -6.77635265E-03 -6.94694202E-03 -6.77535441E-03 -1.24952046E-01
  3.31885204E-01  1.49900588E-02  3.22321983E-02  4.30606933E-02  7.50893297E-02
  8.01443939E-02  8.01280620E-02 -1.62268245E-01  4.31536138E-01 -2.27419430E-02
  1.61344546E-02 -2.79472847E-02  1.02211478E-01  1.02210913E-01 -1.24951463E-01
  3.31883584E-01  1.49005743E-02 -5.34386490E-02 -6.33112706E-03  8.01365018E-02
  7.50886418E-02  8.01359003E-02  1.60977833E-01 -4.55745290E-01  1.35357516E-03
  3.11279408E-02  2.00966022E-02 -1.47158069E-01 -1.32404345E-01 -1.32456275E-01
  8.71883624E-08 -4.77917432E-07  1.43355244E-04  1.32238370E-01  7.62317395E-02
 -8.57229288E-07  4.63315884E-07 -1.60978700E-01  4.55747727E-01 -1.28219400E-03
  3.29934512E-02  1.68643934E-02  1.32425943E-01  1.47158273E-01  1.32437176E-01
  9.13713565E-02 -2.76244269E-01  7.07012190E-02  3.63759589E-02  1.36632992E-01
 -9.78821664E-02 -1.34520341E-01 -1.34410381E-01 -1.52583676E-01  4.65641613E-01
  9.44985050E-02 -6.70508954E-02  1.16134033E-01  2.08448870E-01  2.08444020E-01
  9.13706130E-02 -2.76242241E-01  7.05173473E-02 -1.36579906E-01  3.69248718E-02
 -1.34470118E-01 -9.78810930E-02 -1.34459217E-01  4.66907000E-06 -1.74940644E-05
  2.38347184E-01  8.37392066E-02 -1.45627076E-01  3.68238246E-04  1.84038271E-01
 -1.84424423E-01 -7.14011163E-06  2.40886215E-05  3.20084504E-01  1.12414100E-01
 -1.95595800E-01 -2.38824192E-01  2.38817635E-01  7.20083545E-06 -2.21898184E-05
  2.38333439E-01  8.36623482E-02 -1.45689367E-01 -1.84184498E-01 -1.36964080E-04
  1.84277443E-01  1.29964280E-02 -4.04275866E-02 -1.02455685E-01  3.67411461E-01
  4.35828020E-02 -3.17964927E-01  6.88611168E-02  6.80219840E-02 -2.92877630E-02
  1.04053205E-01 -1.59382211E-01  1.13007864E-01 -1.95733235E-01 -8.22955456E-02
 -8.24210451E-02  1.29966899E-02 -4.04282008E-02 -1.03050651E-01 -2.21655472E-01
 -2.96038246E-01  6.85250929E-02 -3.17966846E-01  6.83592627E-02 -6.73587648E-03
  2.16981289E-02 -2.31382730E-01  2.12327848E-01 -2.56040136E-01 -2.37128429E-01
  2.03146240E-01  2.02646014E-01 -2.69123339E-07  7.31313872E-07  2.39318622E-04
  2.30192924E-01  1.32709613E-01  2.22024519E-05 -2.10381177E-05  6.73568147E-03
 -2.16978001E-02  2.31532170E-01 -1.15524785E-01  3.11805521E-01 -2.03251195E-01
  2.37126638E-01 -2.02538520E-01 -8.37132338E-06  3.19337121E-05  3.43880406E-01
  1.21012117E-01 -2.10456799E-01  5.01574008E-04  2.97297910E-01 -2.97673455E-01
 -4.55447168E-06  1.70373072E-05 -1.81288878E-05  2.39900408E-04  1.05555167E-04
 -2.28421978E-05 -2.13270330E-05  6.96346031E-06 -1.94172874E-05 -3.43873158E-01
 -1.20998951E-01  2.10482651E-01  2.97229727E-01  3.08139648E-04 -2.97747488E-01
  7.05666295E-05 -2.93205161E-04  2.19614183E-01  7.75096910E-02 -1.35678845E-01
 -4.89382755E-05  2.41826479E-01 -2.41018360E-01  6.76721150E-05 -2.99005732E-04
 -3.44754947E-01 -1.22275837E-01  2.12500543E-01  3.59390529E-01 -3.57544646E-01
  7.96400071E-05 -3.23416893E-04  2.19546916E-01  7.83765071E-02 -1.35283503E-01
 -2.40700387E-01 -5.76304207E-04  2.42136232E-01  1.93745656E-02 -7.95540134E-02
 -2.00366269E-01  3.98657289E-02 -3.03022675E-01 -1.45572516E-01  1.77669740E-01
  1.78722911E-01  1.76545651E-02 -7.82738349E-02  2.71731064E-01 -1.91401859E-01
  3.31522848E-01  2.41399914E-01  2.44099173E-01  1.93739658E-02 -7.95514279E-02
 -2.00210120E-01  2.42539914E-01 -1.86133224E-01  1.79210973E-01 -1.45580802E-01
  1.77181576E-01  2.38226673E-02 -9.36289166E-02 -3.57432455E-02 -3.48057250E-01
 -2.58532965E-01  2.92023603E-01 -1.17977255E-02 -1.11718735E-02 -3.56300711E-07
  1.20511371E-06  3.55473071E-04  4.13180104E-01  2.38254913E-01  6.93550972E-05
 -7.58418873E-05 -2.38232751E-02  9.36315068E-02  3.50231124E-02 -3.98186129E-01
 -1.71715846E-01  1.14696369E-02 -2.92019127E-01  1.14891578E-02 -4.08375136E-02
  2.20022031E-01  3.73869519E-01 -7.55792475E-02  5.69450941E-01 -3.65553775E-01
  2.89408823E-01  2.87168535E-01  7.12738851E-02 -3.77895419E-01  4.31426280E-01
 -3.06316546E-01  5.30454468E-01 -2.70575474E-01 -2.70052731E-01 -4.08436923E-02
  2.20056163E-01  3.73532345E-01 -4.55557676E-01  3.50363380E-01  2.88130262E-01
 -3.65522665E-01  2.88428993E-01 -6.26348283E-02  3.44712760E-01  9.40672777E-02
  5.15055930E-01  4.47350330E-01  3.36435643E-01 -9.85590415E-02 -9.54484453E-02
  3.14237182E-06 -1.64360558E-05  1.75873367E-03  8.30364675E-01  4.78038565E-01
  1.02943961E-03 -1.05773957E-03  6.26303042E-02 -3.44688175E-01 -9.08530513E-02
  6.46020132E-01  2.20485037E-01  9.79849768E-02 -3.36481001E-01  9.60828844E-02
 -7.46555161E-05  3.88694465E-04 -4.31138626E-01 -1.49997639E-01  2.63931474E-01
  2.23513008E-03  4.59463613E-01 -4.61215544E-01 -2.38806694E-05  1.18619778E-04
 -5.50527509E-01 -1.91586911E-01  3.36983278E-01 -6.18720453E-01  6.19005510E-01
  1.65078316E-04 -9.11542612E-04 -4.31424190E-01 -1.50030047E-01  2.63432585E-01
 -4.60234927E-01 -3.51805803E-04  4.60438703E-01 -6.04683739E-02  4.03326589E-01
 -2.77467437E-02 -5.25128066E-01 -3.47523294E-01 -6.33408597E-01 -1.62337744E-01
 -1.63172907E-01 -1.60048762E-01  9.89061899E-01  2.89490297E-02 -2.06565643E-02
  3.57709808E-02 -4.65944897E-01 -4.65644974E-01 -6.04689684E-02  4.03329850E-01
 -2.71707353E-02  5.63723054E-01  2.80669900E-01 -1.63102849E-01 -6.33409115E-01
 -1.62407262E-01  3.77650815E-04 -2.40912602E-03  6.43844184E-01  2.24256606E-01
 -3.92110425E-01 -1.94853559E-03 -6.33897039E-01  6.38944922E-01  8.82475916E-05
 -6.73959008E-04 -1.21419548E-03  8.43965333E-04 -1.50333487E-03  1.21748367E-03
  1.21807014E-03  1.81263155E-04 -1.17651256E-03 -6.42524120E-01 -2.25412960E-01
  3.93628725E-01 -6.35504747E-01 -6.19700569E-04  6.37360316E-01 -1.24750926E-01
  7.90676266E-01 -2.12831551E-01  5.00675118E-01 -6.52600314E-02  1.44277600E-01
 -5.07281971E-01 -5.02011420E-01  4.02015332E-02 -2.03241314E-01  4.07875621E-01
 -2.89484595E-01  5.01418053E-01 -2.22964170E-01 -2.22895795E-01 -1.24754638E-01
  7.90700828E-01 -2.17010492E-01 -1.95261649E-01 -4.63737855E-01 -5.06396630E-01
  1.44303771E-01 -5.02977235E-01 -4.55281370E-02  3.00956968E-01 -4.43652228E-01
  4.24645810E-01 -4.84873981E-01  3.76553405E-01 -5.44713510E-01 -5.40655635E-01
  2.73766280E-06 -1.56401113E-05 -1.27943486E-03 -3.11821565E-01 -1.78963740E-01
 -7.39743445E-04  7.36027090E-04  4.55188091E-02 -3.00898170E-01  4.45247538E-01
 -2.07044227E-01  6.09181313E-01  5.42861048E-01 -3.76553482E-01  5.42444108E-01
  1.61508297E-01 -1.04294208E+00 -8.64663027E-02  3.57270516E-01  6.32499394E-02
  7.41212939E-01  3.73346919E-01  3.74451221E-01  3.11112497E-06 -1.97959103E-05
 -9.53772445E-04 -3.21324831E-01 -1.84755378E-01 -4.66353900E-04  4.91588630E-04
 -1.61511682E-01  1.04296333E+00  8.79780205E-02  2.33940098E-01  2.76871380E-01
 -3.73265690E-01 -7.41230741E-01 -3.74542356E-01  1.13539670E-01 -7.16910940E-01
 -1.06970769E-01  2.09745446E-01 -5.52985772E-02  5.17989585E-01  2.09403822E-01
  2.10845818E-01 -1.83708620E-01  1.16386104E+00  2.44596918E-01 -1.73143413E-01
  2.99871230E-01 -7.15912914E-01 -7.16617593E-01  1.13534754E-01 -7.16879207E-01
 -1.08071852E-01 -5.73646726E-02 -2.08599231E-01  2.09582026E-01  5.17959108E-01
  2.10655628E-01 -2.59375982E-06  5.93045847E-06 -5.03018190E-01 -1.75262127E-01
  3.06342945E-01  2.13318604E-03  4.00353344E-01 -4.02664877E-01  7.37293366E-05
 -4.71286552E-04  7.57443716E-01  2.65640406E-01 -4.63216476E-01  6.24706848E-01
 -6.24088377E-01 -1.13568203E-04  7.52009678E-04 -5.01735307E-01 -1.76240554E-01
  3.07869087E-01 -4.01267860E-01 -1.40563841E-03  4.01747102E-01
Total SCF Density                          R   N=         276
  2.06300777E+00 -1.95748411E-01  8.27276710E-01  2.95768722E-04  6.36934286E-03
  6.67963927E-01 -1.77851955E-04  1.12435941E-02 -1.24411200E-03  6.67619642E-01
  3.85381427E-04  1.68718884E-02 -3.60443130E-03 -3.25975649E-03  6.61951447E-01
 -9.99655986E-02  2.21037322E-01  2.00862800E-01 -5.60497515E-01  4.44623288E-03
  6.01538801E-01 -1.00972274E-01  2.24350420E-01  2.02968220E-01  2.86650449E-01
 -4.79133665E-01 -1.20816506E-01  6.01190662E-01 -1.00970881E-01  2.24345575E-01
 -5.94001435E-01  4.91608630E-03  8.88551144E-03 -1.20816384E-01 -1.21706421E-01
  6.01191074E-01  1.55941527E-02 -3.85684032E-02 -3.13851263E-02 -4.70223106E-02
 -7.83892906E-02  1.93457091E-02  1.75542759E-02  1.75579040E-02  2.06265093E+00
 -3.76910182E-02  3.18279434E-02  8.85355927E-02  1.31631273E-01  2.20544218E-01
 -6.95657473E-02 -6.95600238E-02 -6.95605017E-02 -1.99321617E-01  8.44507442E-01
  3.31595959E-02 -9.74714336E-02 -6.25450866E-02 -9.00241938E-02 -1.54680506E-01
  6.11579782E-04 -3.38582542E-03  9.45452081E-02 -1.94431194E-03 -7.13630416E-03
  6.60010692E-01  4.38518557E-02 -1.18515101E-01 -9.11133797E-02 -1.17761766E-01
 -2.16950856E-01  9.26797088E-02 -7.38245207E-04  3.38810425E-02  1.37959793E-03
  5.06226518E-03  3.25692625E-03  6.45962596E-01  7.94762604E-02 -2.27653245E-01
 -1.55232964E-01 -2.15295102E-01 -3.77485439E-01  5.45407480E-02  1.13985930E-01
  5.40010390E-02 -2.38932567E-03 -8.76891530E-03 -5.67943540E-03 -5.39558937E-03
  6.52224715E-01  2.01550322E-02 -7.91270737E-02 -3.31844247E-03 -3.74891315E-03
 -1.15618026E-01 -4.35931180E-02  1.20649871E-01 -4.96979105E-02 -1.02606410E-01
  2.26293479E-01 -2.08524052E-01 -2.77177265E-01  4.81178382E-01  6.10474789E-01
  2.01529760E-02 -7.91162798E-02 -9.15527710E-02 -3.46872988E-02 -6.17388705E-02
 -4.39410588E-02 -4.93597021E-02  1.20646979E-01 -1.02605923E-01  2.26291542E-01
  5.93087275E-01  4.33722282E-03 -8.61201458E-03 -1.31667784E-01  6.10479814E-01
 -3.88304598E-03  1.42229618E-02 -2.83314218E-03  1.88191721E-02  6.16336950E-03
 -2.06733686E-02  1.01427168E-02  1.00780523E-02  1.55941258E-02 -3.76908482E-02
  3.30172283E-02 -9.08044814E-02  1.84697069E-03  2.01543224E-02  2.01535688E-02
  2.06300779E+00  1.42229578E-02 -4.49029993E-02  1.55072616E-02 -8.08047459E-02
 -2.10191296E-02  8.36082549E-02 -3.82048297E-02 -3.79326663E-02 -3.85683232E-02
  3.18274344E-02 -9.70786791E-02  2.56549431E-01 -1.14256452E-02 -7.91221970E-02
 -7.91207706E-02 -1.95748499E-01  8.27277012E-01 -2.87267925E-03  1.56567459E-02
 -2.43386529E-02 -2.09999813E-02  1.19514420E-02  2.30891137E-02 -1.88944768E-02
  2.22532641E-03 -3.12363062E-02  8.81171266E-02 -6.19675991E-02  1.79302998E-01
  1.08555799E-03 -3.22023483E-03 -9.14329223E-02  2.96063475E-04  6.33404471E-03
  6.67979918E-01 -1.47609505E-02  5.86571656E-02  3.93134054E-04  7.01051377E-02
  6.33795299E-02 -9.84917279E-02  3.43160519E-02  4.14259005E-02  9.14506434E-02
 -2.56959459E-01  1.78281863E-01 -5.00279826E-01  4.03840362E-03  1.01929912E-01
  7.09611542E-02 -2.44534271E-04 -2.02463681E-02  3.72775331E-03  6.60533197E-01
 -1.31922487E-02  5.93789493E-02  2.42030938E-02  2.84663500E-02  1.68908508E-02
 -1.87440380E-02  1.45029361E-02  1.62917396E-03  1.43821553E-03 -3.47162653E-03
  5.15273899E-04  5.72993962E-03  4.45360153E-03 -5.47096781E-02 -8.12652070E-04
  3.46763861E-04 -1.28085458E-03 -7.26761241E-04  8.37377786E-04  6.69022345E-01
  1.01112245E-02 -3.80754238E-02  2.02509947E-03 -2.22472585E-02 -3.51594771E-02
  6.91154240E-03 -3.25647451E-03  1.16634909E-02  1.75559094E-02 -6.95612397E-02
  9.44491113E-02 -6.38659369E-02 -2.18650661E-03 -4.94968218E-02  1.20654871E-01
 -1.00970678E-01  2.24344376E-01 -5.94014866E-01 -9.19939140E-03 -5.37270639E-04
  6.01190212E-01 -2.06733957E-02  8.36083059E-02  2.33348998E-02  6.55645132E-02
  7.57749678E-02 -5.12870092E-02  6.96929584E-03  6.84503861E-03  1.93455732E-02
 -6.95651544E-02  5.44461878E-04 -9.35957407E-02 -5.29533871E-02 -4.37946963E-02
 -4.37397541E-02 -9.99657351E-02  2.21037525E-01  2.00704778E-01  2.76335603E-01
  4.87728677E-01 -1.20816146E-01  6.01538745E-01  1.01096333E-02 -3.80624131E-02
 -1.89400583E-02 -2.96808646E-02 -2.22191878E-02  6.90295595E-03  1.16592162E-02
 -3.23598733E-03  1.75563596E-02 -6.95597028E-02 -3.61961557E-03 -9.83041620E-02
  5.76768439E-02  1.20640883E-01 -4.95596517E-02 -1.00972419E-01  2.24351655E-01
  2.04002370E-01  2.71029438E-01 -4.87711086E-01 -1.21706914E-01 -1.20816264E-01
  6.01191848E-01
Cartesian Gradient                         R   N=          33
 -9.44446756E-03 -4.83256444E-03 -1.82167928E-02 -6.48799160E-03  2.47227883E-02
  3.66802060E-03 -6.74014148E-03 -9.60172701E-03  2.21253446E-02  2.48551482E-02
  1.59411638E-03  2.80727655E-03  1.68532438E-02 -1.19459139E-02  2.07352964E-02
  6.18151515E-03  1.34023836E-02 -2.32676927E-02 -2.73739395E-02  1.62799798E-03
 -2.76965851E-03 -9.39630287E-03  1.81906967E-02 -4.98430023E-03  2.48535695E-02
 -3.24174923E-03  8.95646646E-05 -6.50001302E-03 -1.55362127E-02 -1.95630427E-02
 -6.80062072E-03 -1.43798158E-02  1.93759841E-02
Cartesian Force Constants                  R   N=         561
  7.96422776E-01 -3.75224284E-02  7.76688716E-01 -6.46032556E-02 -8.77139144E-02
  6.66701989E-01 -1.05108973E-01  1.29743762E-01  1.89769263E-03  1.00178026E-01
  1.31021959E-01 -4.18925184E-01  7.00543832E-03 -1.36278675E-01  4.35948498E-01
  2.63506697E-03  4.84134766E-03 -5.33322158E-02  1.17892284E-03 -4.62315638E-04