3
LJ3 Energy= 3.0000
He          0.4391356726        0.1106588251       -0.4635601962
He         -0.5185079933        0.3850176090        0.0537084789
He          0.0793723207       -0.4956764341        0.4098517173
