75
LJ75 D5h Energy= -397.492331
He          2.1563146656        0.3324162167        0.5131260252
He         -2.1563004748       -0.3324124107       -0.5131248765
He         -0.7027936746        2.1718636428       -0.8587845035
He          0.6590454539        1.7877809162       -1.5224722010
He          0.7984499102       -2.2482517838        0.5062263439
He         -0.0226364179       -2.2958728202       -0.8227278804
He         -0.7568635946       -1.5137528237        1.7561769469
He          0.0518644197       -0.3489648992        2.4132825929
He          0.1142244212       -1.0909810902       -2.1783397349
He         -0.0343386882        2.1454304447        1.1594685092
He          1.0703203782        0.1452592767       -2.1867113868
He         -1.1772394055        1.2474698857        1.7338785732
He          0.0108447239       -0.0180424931       -2.4388455964
He         -1.0938094297        1.9820927296        0.9073634910
He         -0.1177702273        1.4108147516        1.9859816102
He          1.1736908368       -0.9276765140       -1.9261971689
He         -1.0076039495       -0.5123225276        2.1611761710
He          0.3026016334       -1.3503970936        2.0082995587
He         -0.2610115230       -2.4115826469        0.2540929001
He          1.0368295156       -2.1325525980       -0.5705966563
He          0.3566764054        2.3351910574       -0.6066805572
He         -0.4004256245        1.6244708954       -1.7745810063
He          1.3491488189        0.9260922058       -1.4546626337
He         -0.5644663365       -1.5525600062       -1.4369453627
He         -1.3781228193        1.6969307111       -0.1227766244
He          1.0783887239       -1.4576411901        1.2272791109
He          0.5755199817        0.5506814343        2.0394493971
He         -1.5454316008        0.2236832323        1.5347628266
He         -1.0425481871       -1.7846158876        0.7225568023
He          0.7428300869        2.0239071493        0.3819138130
He          1.5564889924       -1.2256237678       -0.9322027084
He         -0.7717997466        0.5991521525       -1.9593859752
He          1.7458785474        0.6274986703       -0.4706577622
He         -1.7603439839        0.6814542936       -0.3165218376
He         -1.3543103105       -0.9401154772       -0.9723147422
He          1.8493560124       -0.4462609114       -0.2099376426
He          1.6107730639       -0.5620424106        0.8676875328
He         -1.8438379574       -0.0537319496        0.5106330228
He          1.3598274291        0.4401600150        1.2729776389
He          1.4433251597        1.1753341823        0.4458331729
He         -1.5928867437       -1.0559168472        0.1053281007
He         -1.4577779208        0.1336369014       -1.2330321110
He         -1.0764871216        1.1489075028       -1.0421049667
He          0.8282722078       -0.4537632107        1.6348798840
He          1.3191589435       -1.3426621217        0.1478037265
He         -0.8048028180       -1.6700851005       -0.3576419850
He         -0.6693084721       -0.4771991456       -1.6997325395
He          0.6603444557        1.2884645769        1.2118459229
He          1.0474781184        1.4763334645       -0.5366716580
He         -1.2956967178       -0.7812175215        1.1294624574
He          1.4546511079       -0.1497988043       -1.1942766515
He         -1.4636220866        0.9610174984        0.7064333811
He          0.0178187655       -1.6120931342        0.9694880306
He         -0.4822532770        0.3850202513        1.7771454261
He         -0.3158789244        1.8500466057        0.1288510616
He          0.2870659514        0.7583719627       -1.6975106029
He          0.4932411276       -1.3813503628       -1.1779702250
He         -0.2325324687       -0.6143744573        1.3751929813
He          0.2558770171       -1.4987672887       -0.1043864314
He         -0.0144319709        1.3059921470       -0.7854020106
He         -0.3996114195        1.1190603834        0.9542952180
He          0.3906883027       -0.3119161924       -1.4397033997
He         -1.0683443333       -0.1646869877       -0.2542266483
He          1.0683391954        0.1646950770        0.2542253119
He         -0.6888530478        0.8382816166       -0.0624414727
He          0.3746090006        1.0022257861        0.1906256017
He         -0.3889453459        0.2952651421       -0.9709146573
He         -0.7716204415        0.1095423290        0.7574607939
He          0.2918414828        0.2734937627        1.0105224960
He          0.6745121128        0.4592001235       -0.7178408480
He          0.7770790293       -0.6051466461       -0.4594109913
He         -0.2863818559       -0.7690804198       -0.7124815565
He          0.5405892420       -0.7199207215        0.6087790824
He         -0.5228702169       -0.8838630298        0.3557108525
He         -0.0000061072        0.0000042991       -0.0000007557
